********************************************************************************
*                       GENERAL UTILITY LATTICE PROGRAM                        *
*                                 Julian Gale                                  *
*                      Nanochemistry Research Institute                        *
*                           Department of Chemistry                            *
*                    Curtin University, Western Australia                      *
********************************************************************************
* Version = 4.0.3 * Last modified =  20th April 2012                           *
********************************************************************************
*  single       - perform a single point run                                   *
*  conv         - constant volume calculation                                  *
*  property     - calculate properties for final geometry                      *
*  potential    - calculate electrostatic site potentials                      *
********************************************************************************

  Job Started  at 11:20.13 26th March      2015                               

  Number of CPUs =     1

  Host name      = ppc                                     


  Total number of configurations input =   1

********************************************************************************
*  Input for Configuration =   1                                               *
********************************************************************************

  Formula = Mg24O30H12X192                                              

  Number of irreducible atoms/shells =     258


  Total number atoms/shells =     258

  Dimensionality = 3               :  Bulk   



  Cartesian lattice vectors (Angstroms) :

        8.930759    0.000000    0.000000
        0.000000    5.953839    0.000000
        0.000000    0.000000   23.420000

  Cell parameters (Angstroms/Degrees):

  a =       8.9308    alpha =  90.0000
  b =       5.9538    beta  =  90.0000
  c =      23.4200    gamma =  90.0000

  Initial cell volume =        1245.295295 Angs**3

  Temperature of configuration =  0.000     K 

  Pressure of configuration =         0.000 GPa 

  Fractional coordinates of asymmetric unit :

--------------------------------------------------------------------------------
   No.  Atomic       x           y          z         Charge      Occupancy
        Label      (Frac)      (Frac)     (Frac)        (e)         (Frac)  
--------------------------------------------------------------------------------
      1 Mg    c    0.578633    0.302123    0.218589     8.00000    1.000000    
      2 Mg    c    0.762789    0.553684    0.312622     8.00000    1.000000    
      3 Mg    c    0.078391    0.553354    0.313708     8.00000    1.000000    
      4 Mg    c    0.242805    0.801983    0.220219     8.00000    1.000000    
      5 Mg    c    0.078509    0.053341    0.313727     8.00000    1.000000    
      6 Mg    c    0.578346    0.802044    0.218543     8.00000    1.000000    
      7 Mg    c    0.764646    0.052150    0.315978     8.00000    1.000000    
      8 Mg    c    0.914503    0.803499    0.220226     8.00000    1.000000    
      9 Mg    c    0.392376    0.552233    0.316353     8.00000    1.000000    
     10 Mg    c    0.394067    0.053759    0.312774     8.00000    1.000000    
     11 Mg    c    0.242762    0.303564    0.220285     8.00000    1.000000    
     12 Mg    c    0.245310    0.302458    0.038895     8.00000    1.000000    
     13 Mg    c    0.245310    0.802458    0.038895     8.00000    1.000000    
     14 Mg    c    0.411977    0.552458    0.128775     8.00000    1.000000    
     15 Mg    c    0.578643    0.302458    0.038895     8.00000    1.000000    
     16 Mg    c    0.745310    0.552458    0.128775     8.00000    1.000000    
     17 Mg    c    0.911977    0.302458    0.038895     8.00000    1.000000    
     18 Mg    c    0.078643    0.552458    0.128775     8.00000    1.000000    
     19 Mg    c    0.411977    0.052458    0.128775     8.00000    1.000000    
     20 Mg    c    0.578643    0.802458    0.038895     8.00000    1.000000    
     21 Mg    c    0.745310    0.052458    0.128775     8.00000    1.000000    
     22 Mg    c    0.914475    0.302009    0.220162     8.00000    1.000000    
     23 Mg    c    0.078643    0.052458    0.128775     8.00000    1.000000    
     24 Mg    c    0.911977    0.802458    0.038895     8.00000    1.000000    
     25 O     c    0.078492    0.552780    0.218146     6.00000    1.000000    
     26 O     c    0.411977    0.552458    0.038895     6.00000    1.000000    
     27 O     c    0.245310    0.302458    0.128775     6.00000    1.000000    
     28 O     c    0.415972    0.552297    0.221912     6.00000    1.000000    
     29 O     c    0.242061    0.301936    0.308629     6.00000    1.000000    
     30 O     c    0.745310    0.552458    0.038895     6.00000    1.000000    
     31 O     c    0.578643    0.302458    0.128775     6.00000    1.000000    
     32 O     c    0.578643    0.802458    0.128775     6.00000    1.000000    
     33 O     c    0.078643    0.552458    0.038895     6.00000    1.000000    
     34 O     c    0.914796    0.801909    0.308540     6.00000    1.000000    
     35 O     c    0.078720    0.052788    0.218148     6.00000    1.000000    
     36 O     c    0.911977    0.302458    0.128775     6.00000    1.000000    
     37 O     c    0.911977    0.802458    0.128775     6.00000    1.000000    
     38 O     c    0.581783    0.810464    0.317617     6.00000    1.000000    
     39 O     c    0.741146    0.052266    0.221897     6.00000    1.000000    
     40 O     c    0.741047    0.552580    0.221632     6.00000    1.000000    
     41 O     c    0.411977    0.052458    0.038895     6.00000    1.000000    
     42 O     c    0.241882    0.804159    0.308031     6.00000    1.000000    
     43 O     c    0.416074    0.052526    0.221674     6.00000    1.000000    
     44 O     c    0.245310    0.802458    0.128775     6.00000    1.000000    
     45 O     c    0.574803    0.310712    0.317542     6.00000    1.000000    
     46 O     c    0.914951    0.304125    0.307963     6.00000    1.000000    
     47 O     c    0.745310    0.052458    0.038895     6.00000    1.000000    
     48 O     c    0.078643    0.052458    0.038895     6.00000    1.000000    
     49 O     c    0.757565    0.112387    0.403745     6.00000    1.000000    
     50 O     c    0.402991    0.045866    0.405236     6.00000    1.000000    
     51 O     c    0.049889    0.052280    0.409081     6.00000    1.000000    
     52 O     c    0.753518    0.547187    0.405140     6.00000    1.000000    
     53 O     c    0.396680    0.611408    0.404173     6.00000    1.000000    
     54 O     c    0.105031    0.551945    0.409016     6.00000    1.000000    
     55 H     c    0.584710    0.278854    0.358688     1.00000    1.000000    
     56 H     c    0.395156    0.874639    0.412279     1.00000    1.000000    
     57 H     c    0.308403    0.111374    0.417954     1.00000    1.000000    
     58 H     c    0.068666    0.897103    0.421405     1.00000    1.000000    
     59 H     c    0.935296    0.070960    0.411779     1.00000    1.000000    
     60 H     c    0.760088    0.375955    0.412217     1.00000    1.000000    
     61 H     c    0.848861    0.610761    0.417739     1.00000    1.000000    
     62 H     c    0.574263    0.780566    0.358908     1.00000    1.000000    
     63 H     c    0.459111    0.533796    0.431941     1.00000    1.000000    
     64 H     c    0.086253    0.396488    0.421130     1.00000    1.000000    
     65 H     c    0.219711    0.570635    0.411906     1.00000    1.000000    
     66 H     c    0.694566    0.034707    0.431325     1.00000    1.000000    
     67 X     c    0.578643    0.802458    0.038797    -2.00000    1.000000    
     68 X     c    0.578643    0.302458    0.038797    -2.00000    1.000000    
     69 X     c    0.911977    0.302458    0.038794    -2.00000    1.000000    
     70 X     c    0.245311    0.802458    0.038794    -2.00000    1.000000    
     71 X     c    0.911977    0.802458    0.038794    -2.00000    1.000000    
     72 X     c    0.245311    0.302458    0.038794    -2.00000    1.000000    
     73 X     c    0.578643    0.802458    0.038876    -2.00000    1.000000    
     74 X     c    0.578643    0.802461    0.038876    -2.00000    1.000000    
     75 X     c    0.578644    0.302458    0.038876    -2.00000    1.000000    
     76 X     c    0.762590    0.553685    0.312630    -2.00000    1.000000    
     77 X     c    0.911977    0.302458    0.038875    -2.00000    1.000000    
     78 X     c    0.394266    0.053760    0.312783    -2.00000    1.000000    
     79 X     c    0.911977    0.302461    0.038875    -2.00000    1.000000    
     80 X     c    0.911976    0.802458    0.038875    -2.00000    1.000000    
     81 X     c    0.245311    0.802458    0.038875    -2.00000    1.000000    
     82 X     c    0.762731    0.553684    0.312645    -2.00000    1.000000    
     83 X     c    0.578643    0.302461    0.038876    -2.00000    1.000000    
     84 X     c    0.394125    0.053759    0.312797    -2.00000    1.000000    
     85 X     c    0.762671    0.553678    0.312630    -2.00000    1.000000    
     86 X     c    0.245312    0.802458    0.038875    -2.00000    1.000000    
     87 X     c    0.394185    0.053753    0.312783    -2.00000    1.000000    
     88 X     c    0.245310    0.302458    0.038875    -2.00000    1.000000    
     89 X     c    0.911976    0.802459    0.038875    -2.00000    1.000000    
     90 X     c    0.245311    0.302457    0.038875    -2.00000    1.000000    
     91 X     c    0.578346    0.802047    0.218607    -2.00000    1.000000    
     92 X     c    0.578633    0.302125    0.218653    -2.00000    1.000000    
     93 X     c    0.764462    0.052175    0.315979    -2.00000    1.000000    
     94 X     c    0.392558    0.552257    0.316354    -2.00000    1.000000    
     95 X     c    0.764594    0.052142    0.315966    -2.00000    1.000000    
     96 X     c    0.392428    0.552226    0.316339    -2.00000    1.000000    
     97 X     c    0.764532    0.052177    0.315980    -2.00000    1.000000    
     98 X     c    0.578347    0.802049    0.218554    -2.00000    1.000000    
     99 X     c    0.392489    0.552260    0.316355    -2.00000    1.000000    
    100 X     c    0.578347    0.802047    0.218555    -2.00000    1.000000    
    101 X     c    0.578634    0.302125    0.218601    -2.00000    1.000000    
    102 X     c    0.578633    0.302127    0.218601    -2.00000    1.000000    
    103 X     c    0.411987    0.052458    0.128780    -2.00000    1.000000    
    104 X     c    0.745305    0.552455    0.128780    -2.00000    1.000000    
    105 X     c    0.411983    0.052459    0.128780    -2.00000    1.000000    
    106 X     c    0.745300    0.552458    0.128780    -2.00000    1.000000    
    107 X     c    0.745307    0.552458    0.128796    -2.00000    1.000000    
    108 X     c    0.411981    0.052458    0.128796    -2.00000    1.000000    
    109 X     c    0.745301    0.052458    0.128780    -2.00000    1.000000    
    110 X     c    0.745307    0.052458    0.128796    -2.00000    1.000000    
    111 X     c    0.411981    0.552458    0.128796    -2.00000    1.000000    
    112 X     c    0.411987    0.552458    0.128780    -2.00000    1.000000    
    113 X     c    0.745305    0.052457    0.128780    -2.00000    1.000000    
    114 X     c    0.411982    0.552457    0.128780    -2.00000    1.000000    
    115 X     c    0.078511    0.053341    0.313752    -2.00000    1.000000    
    116 X     c    0.078388    0.553354    0.313732    -2.00000    1.000000    
    117 X     c    0.078502    0.053340    0.313736    -2.00000    1.000000    
    118 X     c    0.078396    0.553353    0.313717    -2.00000    1.000000    
    119 X     c    0.078506    0.053340    0.313737    -2.00000    1.000000    
    120 X     c    0.078393    0.553352    0.313718    -2.00000    1.000000    
    121 X     c    0.078643    0.552459    0.128773    -2.00000    1.000000    
    122 X     c    0.078644    0.552458    0.128773    -2.00000    1.000000    
    123 X     c    0.242810    0.303559    0.220278    -2.00000    1.000000    
    124 X     c    0.914475    0.803492    0.220219    -2.00000    1.000000    
    125 X     c    0.078642    0.052458    0.128773    -2.00000    1.000000    
    126 X     c    0.914455    0.803494    0.220219    -2.00000    1.000000    
    127 X     c    0.242790    0.303557    0.220278    -2.00000    1.000000    
    128 X     c    0.078643    0.552458    0.128770    -2.00000    1.000000    
    129 X     c    0.078643    0.052458    0.128770    -2.00000    1.000000    
    130 X     c    0.078643    0.052459    0.128773    -2.00000    1.000000    
    131 X     c    0.914488    0.803498    0.220198    -2.00000    1.000000    
    132 X     c    0.242777    0.303562    0.220257    -2.00000    1.000000    
    133 X     c    0.914424    0.302012    0.220154    -2.00000    1.000000    
    134 X     c    0.242855    0.801987    0.220211    -2.00000    1.000000    
    135 X     c    0.914446    0.302013    0.220154    -2.00000    1.000000    
    136 X     c    0.242834    0.801986    0.220211    -2.00000    1.000000    
    137 X     c    0.914459    0.302009    0.220129    -2.00000    1.000000    
    138 X     c    0.242821    0.801984    0.220186    -2.00000    1.000000    
    139 X     c    0.996794    0.059399    0.410830    -2.00000    1.000000    
    140 X     c    0.803899    0.578602    0.412019    -2.00000    1.000000    
    141 X     c    0.352930    0.078276    0.412185    -2.00000    1.000000    
    142 X     c    0.088093    0.586902    0.417438    -2.00000    1.000000    
    143 X     c    0.578312    0.794943    0.338927    -2.00000    1.000000    
    144 X     c    0.579504    0.294241    0.338742    -2.00000    1.000000    
    145 X     c    0.723907    0.070613    0.418864    -2.00000    1.000000    
    146 X     c    0.430090    0.569701    0.419400    -2.00000    1.000000    
    147 X     c    0.576790    0.789427    0.113684    -2.00000    1.000000    
    148 X     c    0.723731    0.572322    0.234741    -2.00000    1.000000    
    149 X     c    0.894061    0.819019    0.115499    -2.00000    1.000000    
    150 X     c    0.263728    0.825598    0.141129    -2.00000    1.000000    
    151 X     c    0.578842    0.289412    0.113668    -2.00000    1.000000    
    152 X     c    0.434016    0.031505    0.208849    -2.00000    1.000000    
    153 X     c    0.914592    0.793065    0.293164    -2.00000    1.000000    
    154 X     c    0.720604    0.027423    0.210156    -2.00000    1.000000    
    155 X     c    0.779808    0.573379    0.032731    -2.00000    1.000000    
    156 X     c    0.894437    0.286211    0.115397    -2.00000    1.000000    
    157 X     c    0.263304    0.319083    0.115521    -2.00000    1.000000    
    158 X     c    0.436029    0.576978    0.210009    -2.00000    1.000000    
    159 X     c    0.044506    0.073692    0.032447    -2.00000    1.000000    
    160 X     c    0.377474    0.573391    0.032738    -2.00000    1.000000    
    161 X     c    0.377474    0.031515    0.032739    -2.00000    1.000000    
    162 X     c    0.043590    0.570362    0.212130    -2.00000    1.000000    
    163 X     c    0.046441    0.033777    0.210385    -2.00000    1.000000    
    164 X     c    0.217390    0.264024    0.315149    -2.00000    1.000000    
    165 X     c    0.934815    0.345149    0.315572    -2.00000    1.000000    
    166 X     c    0.711637    0.074270    0.032225    -2.00000    1.000000    
    167 X     c    0.044512    0.531200    0.032444    -2.00000    1.000000    
    168 X     c    0.221941    0.845030    0.315680    -2.00000    1.000000    
    169 X     c    0.058710    0.972339    0.415913    -2.00000    1.000000    
    170 X     c    0.397767    0.967641    0.408916    -2.00000    1.000000    
    171 X     c    0.758140    0.468821    0.408850    -2.00000    1.000000    
    172 X     c    0.158012    0.559108    0.410867    -2.00000    1.000000    
    173 X     c    0.614726    0.786143    0.312741    -2.00000    1.000000    
    174 X     c    0.573037    0.365944    0.316950    -2.00000    1.000000    
    175 X     c    0.066607    0.087437    0.417496    -2.00000    1.000000    
    176 X     c    0.402730    0.670215    0.406653    -2.00000    1.000000    
    177 X     c    0.727604    0.567425    0.412297    -2.00000    1.000000    
    178 X     c    0.751417    0.171121    0.406213    -2.00000    1.000000    
    179 X     c    0.429126    0.065534    0.412388    -2.00000    1.000000    
    180 X     c    0.583706    0.865684    0.316871    -2.00000    1.000000    
    181 X     c    0.096364    0.552601    0.394728    -2.00000    1.000000    
    182 X     c    0.412178    0.109793    0.037209    -2.00000    1.000000    
    183 X     c    0.578141    0.858625    0.130008    -2.00000    1.000000    
    184 X     c    0.548727    0.791423    0.311532    -2.00000    1.000000    
    185 X     c    0.612925    0.784501    0.135035    -2.00000    1.000000    
    186 X     c    0.607439    0.291624    0.311094    -2.00000    1.000000    
    187 X     c    0.262909    0.818773    0.115414    -2.00000    1.000000    
    188 X     c    0.909350    0.746261    0.129611    -2.00000    1.000000    
    189 X     c    0.950665    0.814183    0.128549    -2.00000    1.000000    
    190 X     c    0.925290    0.857654    0.310733    -2.00000    1.000000    
    191 X     c    0.247925    0.246255    0.129592    -2.00000    1.000000    
    192 X     c    0.744576    0.562302    0.053813    -2.00000    1.000000    
    193 X     c    0.079121    0.496530    0.216832    -2.00000    1.000000    
    194 X     c    0.430491    0.569854    0.235636    -2.00000    1.000000    
    195 X     c    0.420484    0.496066    0.220936    -2.00000    1.000000    
    196 X     c    0.745086    0.995120    0.037218    -2.00000    1.000000    
    197 X     c    0.231763    0.357793    0.310738    -2.00000    1.000000    
    198 X     c    0.078645    0.609798    0.037245    -2.00000    1.000000    
    199 X     c    0.876555    0.795905    0.313466    -2.00000    1.000000    
    200 X     c    0.737341    0.496398    0.221404    -2.00000    1.000000    
    201 X     c    0.752815    0.553276    0.390244    -2.00000    1.000000    
    202 X     c    0.780254    0.562739    0.221464    -2.00000    1.000000    
    203 X     c    0.096203    0.471866    0.415733    -2.00000    1.000000    
    204 X     c    0.445675    0.574225    0.032235    -2.00000    1.000000    
    205 X     c    0.058753    0.052757    0.394812    -2.00000    1.000000    
    206 X     c    0.403668    0.052108    0.390347    -2.00000    1.000000    
    207 X     c    0.722913    0.573982    0.208881    -2.00000    1.000000    
    208 X     c    0.726737    0.035883    0.235720    -2.00000    1.000000    
    209 X     c    0.109766    0.573345    0.210024    -2.00000    1.000000    
    210 X     c    0.112772    0.073726    0.032445    -2.00000    1.000000    
    211 X     c    0.280242    0.295762    0.313589    -2.00000    1.000000    
    212 X     c    0.541503    0.286921    0.312888    -2.00000    1.000000    
    213 X     c    0.893945    0.825572    0.141225    -2.00000    1.000000    
    214 X     c    0.546898    0.782224    0.136454    -2.00000    1.000000    
    215 X     c    0.779834    0.073323    0.032745    -2.00000    1.000000    
    216 X     c    0.950651    0.290673    0.128699    -2.00000    1.000000    
    217 X     c    0.112797    0.033698    0.211722    -2.00000    1.000000    
    218 X     c    0.376869    0.042463    0.221556    -2.00000    1.000000    
    219 X     c    0.893548    0.279145    0.141111    -2.00000    1.000000    
    220 X     c    0.409397    0.595874    0.390170    -2.00000    1.000000    
    221 X     c    0.611596    0.283273    0.135833    -2.00000    1.000000    
    222 X     c    0.744998    0.097009    0.389705    -2.00000    1.000000    
    223 X     c    0.874692    0.308750    0.310316    -2.00000    1.000000    
    224 X     c    0.263273    0.325489    0.141247    -2.00000    1.000000    
    225 X     c    0.780336    0.042171    0.220607    -2.00000    1.000000    
    226 X     c    0.282126    0.808855    0.310388    -2.00000    1.000000    
    227 X     c    0.578683    0.358627    0.129991    -2.00000    1.000000    
    228 X     c    0.796263    0.098629    0.406528    -2.00000    1.000000    
    229 X     c    0.357856    0.597589    0.406921    -2.00000    1.000000    
    230 X     c    0.545440    0.283472    0.135684    -2.00000    1.000000    
    231 X     c    0.081321    0.565949    0.233056    -2.00000    1.000000    
    232 X     c    0.909362    0.358643    0.129673    -2.00000    1.000000    
    233 X     c    0.247867    0.746252    0.129643    -2.00000    1.000000    
    234 X     c    0.078632    0.542466    0.053776    -2.00000    1.000000    
    235 X     c    0.206622    0.314198    0.128519    -2.00000    1.000000    
    236 X     c    0.744552    0.062291    0.053812    -2.00000    1.000000    
    237 X     c    0.737066    0.108461    0.220763    -2.00000    1.000000    
    238 X     c    0.412723    0.562263    0.053812    -2.00000    1.000000    
    239 X     c    0.206643    0.814325    0.128688    -2.00000    1.000000    
    240 X     c    0.078641    0.062460    0.053775    -2.00000    1.000000    
    241 X     c    0.412717    0.042670    0.053814    -2.00000    1.000000    
    242 X     c    0.419799    0.108674    0.221530    -2.00000    1.000000    
    243 X     c    0.711609    0.574203    0.032237    -2.00000    1.000000    
    244 X     c    0.939263    0.763593    0.315007    -2.00000    1.000000    
    245 X     c    0.235354    0.811689    0.292756    -2.00000    1.000000    
    246 X     c    0.433566    0.032420    0.234706    -2.00000    1.000000    
    247 X     c    0.921456    0.311510    0.292684    -2.00000    1.000000    
    248 X     c    0.925435    0.249007    0.311302    -2.00000    1.000000    
    249 X     c    0.445677    0.030668    0.032239    -2.00000    1.000000    
    250 X     c    0.242275    0.292739    0.293265    -2.00000    1.000000    
    251 X     c    0.745114    0.495120    0.037221    -2.00000    1.000000    
    252 X     c    0.376713    0.561577    0.220685    -2.00000    1.000000    
    253 X     c    0.078651    0.995119    0.037247    -2.00000    1.000000    
    254 X     c    0.412176    0.495125    0.037213    -2.00000    1.000000    
    255 X     c    0.076654    0.039620    0.233075    -2.00000    1.000000    
    256 X     c    0.231478    0.748991    0.311331    -2.00000    1.000000    
    257 X     c    0.112779    0.531196    0.032450    -2.00000    1.000000    
    258 X     c    0.078948    0.109032    0.216867    -2.00000    1.000000    
--------------------------------------------------------------------------------


  Initial Cartesian coordinates :

--------------------------------------------------------------------------------
   No.  Atomic        x           y           z          Charge   Occupancy
        Label       (Angs)      (Angs)      (Angs)        (e)       (Frac)  
--------------------------------------------------------------------------------
      1 Mg    c     5.167635    1.798789    5.119363    8.000000    1.000000
      2 Mg    c     6.812287    3.296547    7.321596    8.000000    1.000000
      3 Mg    c     0.700087    3.294579    7.347034    8.000000    1.000000
      4 Mg    c     2.168436    4.774876    5.157527    8.000000    1.000000
      5 Mg    c     0.701142    0.317581    7.347477    8.000000    1.000000
      6 Mg    c     5.165071    4.775243    5.118276    8.000000    1.000000
      7 Mg    c     6.828865    0.310493    7.400207    8.000000    1.000000
      8 Mg    c     8.167204    4.783905    5.157687    8.000000    1.000000
      9 Mg    c     3.504219    3.287905    7.408983    8.000000    1.000000
     10 Mg    c     3.519315    0.320073    7.325178    8.000000    1.000000
     11 Mg    c     2.168046    1.807372    5.159070    8.000000    1.000000
     12 Mg    c     2.190807    1.800787    0.910916    8.000000    1.000000
     13 Mg    c     2.190807    4.777707    0.910916    8.000000    1.000000
     14 Mg    c     3.679270    3.289247    3.015906    8.000000    1.000000
     15 Mg    c     5.167723    1.800787    0.910916    8.000000    1.000000
     16 Mg    c     6.656186    3.289247    3.015906    8.000000    1.000000
     17 Mg    c     8.144649    1.800787    0.910916    8.000000    1.000000
     18 Mg    c     0.702344    3.289247    3.015906    8.000000    1.000000
     19 Mg    c     3.679270    0.312327    3.015906    8.000000    1.000000
     20 Mg    c     5.167723    4.777707    0.910916    8.000000    1.000000
     21 Mg    c     6.656186    0.312327    3.015906    8.000000    1.000000
     22 Mg    c     8.166953    1.798110    5.156200    8.000000    1.000000
     23 Mg    c     0.702344    0.312327    3.015906    8.000000    1.000000
     24 Mg    c     8.144649    4.777707    0.910916    8.000000    1.000000
     25 O     c     0.700996    3.291164    5.108979    6.000000    1.000000
     26 O     c     3.679270    3.289247    0.910916    6.000000    1.000000
     27 O     c     2.190807    1.800787    3.015906    6.000000    1.000000
     28 O     c     3.714946    3.288290    5.197171    6.000000    1.000000
     29 O     c     2.161784    1.797677    7.228097    6.000000    1.000000
     30 O     c     6.656186    3.289247    0.910916    6.000000    1.000000
     31 O     c     5.167723    1.800787    3.015906    6.000000    1.000000
     32 O     c     5.167723    4.777707    3.015906    6.000000    1.000000
     33 O     c     0.702344    3.289247    0.910916    6.000000    1.000000
     34 O     c     8.169819    4.774436    7.226003    6.000000    1.000000
     35 O     c     0.703025    0.314289    5.109016    6.000000    1.000000
     36 O     c     8.144649    1.800787    3.015906    6.000000    1.000000
     37 O     c     8.144649    4.777707    3.015906    6.000000    1.000000
     38 O     c     5.195760    4.825375    7.438586    6.000000    1.000000
     39 O     c     6.619000    0.311182    5.196831    6.000000    1.000000
     40 O     c     6.618114    3.289971    5.190624    6.000000    1.000000
     41 O     c     3.679270    0.312327    0.910916    6.000000    1.000000
     42 O     c     2.160194    4.787833    7.214094    6.000000    1.000000
     43 O     c     3.715861    0.312733    5.191598    6.000000    1.000000
     44 O     c     2.190807    4.777707    3.015906    6.000000    1.000000
     45 O     c     5.133423    1.849929    7.436837    6.000000    1.000000
     46 O     c     8.171205    1.810709    7.212495    6.000000    1.000000
     47 O     c     6.656186    0.312327    0.910916    6.000000    1.000000
     48 O     c     0.702344    0.312327    0.910916    6.000000    1.000000
     49 O     c     6.765629    0.669133    9.455707    6.000000    1.000000
     50 O     c     3.599017    0.273081    9.490625    6.000000    1.000000
     51 O     c     0.445544    0.311266    9.580679    6.000000    1.000000
     52 O     c     6.729484    3.257862    9.488380    6.000000    1.000000
     53 O     c     3.542652    3.640225    9.465725    6.000000    1.000000
     54 O     c     0.938009    3.286189    9.579147    6.000000    1.000000
     55 H     c     5.221907    1.660249    8.400463    1.000000    1.000000
     56 H     c     3.529041    5.207459    9.655585    1.000000    1.000000
     57 H     c     2.754269    0.663102    9.788489    1.000000    1.000000
     58 H     c     0.613242    5.341204    9.869298    1.000000    1.000000
     59 H     c     8.352901    0.422482    9.643867    1.000000    1.000000
     60 H     c     6.788160    2.238375    9.654124    1.000000    1.000000
     61 H     c     7.580969    3.636370    9.783455    1.000000    1.000000
     62 H     c     5.128601    4.647365    8.405620    1.000000    1.000000
     63 H     c     4.100211    3.178138   10.116056    1.000000    1.000000
     64 H     c     0.770304    2.360628    9.862860    1.000000    1.000000
     65 H     c     1.962188    3.397468    9.646844    1.000000    1.000000
     66 H     c     6.202999    0.206639   10.101620    1.000000    1.000000
     67 X     c     5.167724    4.777708    0.908637   -2.000000    1.000000
     68 X     c     5.167723    1.800788    0.908620   -2.000000    1.000000
     69 X     c     8.144644    1.800788    0.908566   -2.000000    1.000000
     70 X     c     2.190810    4.777707    0.908557   -2.000000    1.000000
     71 X     c     8.144645    4.777709    0.908551   -2.000000    1.000000
     72 X     c     2.190813    1.800787    0.908558   -2.000000    1.000000
     73 X     c     5.167719    4.777707    0.910474   -2.000000    1.000000
     74 X     c     5.167721    4.777722    0.910470   -2.000000    1.000000
     75 X     c     5.167729    1.800787    0.910474   -2.000000    1.000000
     76 X     c     6.810507    3.296553    7.321792   -2.000000    1.000000
     77 X     c     8.144649    1.800787    0.910449   -2.000000    1.000000
     78 X     c     3.521095    0.320077    7.325373   -2.000000    1.000000
     79 X     c     8.144645    1.800803    0.910446   -2.000000    1.000000
     80 X     c     8.144638    4.777707    0.910450   -2.000000    1.000000
     81 X     c     2.190817    4.777703    0.910445   -2.000000    1.000000
     82 X     c     6.811765    3.296547    7.322138   -2.000000    1.000000
     83 X     c     5.167725    1.800802    0.910469   -2.000000    1.000000
     84 X     c     3.519837    0.320074    7.325698   -2.000000    1.000000
     85 X     c     6.811232    3.296508    7.321798   -2.000000    1.000000
     86 X     c     2.190823    4.777707    0.910449   -2.000000    1.000000
     87 X     c     3.520367    0.320038    7.325376   -2.000000    1.000000
     88 X     c     2.190801    1.800787    0.910449   -2.000000    1.000000
     89 X     c     8.144641    4.777715    0.910445   -2.000000    1.000000
     90 X     c     2.190809    1.800783    0.910445   -2.000000    1.000000
     91 X     c     5.165073    4.775256    5.119779   -2.000000    1.000000
     92 X     c     5.167635    1.798802    5.120848   -2.000000    1.000000
     93 X     c     6.827222    0.310639    7.400236   -2.000000    1.000000
     94 X     c     3.505841    3.288052    7.409007   -2.000000    1.000000
     95 X     c     6.828407    0.310448    7.399923   -2.000000    1.000000
     96 X     c     3.504682    3.287862    7.408661   -2.000000    1.000000
     97 X     c     6.827848    0.310656    7.400256   -2.000000    1.000000
     98 X     c     5.165076    4.775272    5.118543   -2.000000    1.000000
     99 X     c     3.505221    3.288065    7.409027   -2.000000    1.000000
    100 X     c     5.165075    4.775259    5.118556   -2.000000    1.000000
    101 X     c     5.167640    1.798802    5.119640   -2.000000    1.000000
    102 X     c     5.167636    1.798814    5.119626   -2.000000    1.000000
    103 X     c     3.679358    0.312326    3.016023   -2.000000    1.000000
    104 X     c     6.656139    3.289230    3.016021   -2.000000    1.000000
    105 X     c     3.679317    0.312330    3.016021   -2.000000    1.000000
    106 X     c     6.656095    3.289247    3.016022   -2.000000    1.000000
    107 X     c     6.656157    3.289246    3.016398   -2.000000    1.000000
    108 X     c     3.679300    0.312326    3.016401   -2.000000    1.000000
    109 X     c     6.656106    0.312327    3.016019   -2.000000    1.000000
    110 X     c     6.656157    0.312326    3.016396   -2.000000    1.000000
    111 X     c     3.679300    3.289249    3.016398   -2.000000    1.000000
    112 X     c     3.679357    3.289248    3.016019   -2.000000    1.000000
    113 X     c     6.656142    0.312319    3.016017   -2.000000    1.000000
    114 X     c     3.679316    3.289242    3.016017   -2.000000    1.000000
    115 X     c     0.701164    0.317583    7.348063   -2.000000    1.000000
    116 X     c     0.700065    3.294581    7.347603   -2.000000    1.000000
    117 X     c     0.701081    0.317576    7.347694   -2.000000    1.000000
    118 X     c     0.700140    3.294573    7.347247   -2.000000    1.000000
    119 X     c     0.701115    0.317576    7.347715   -2.000000    1.000000
    120 X     c     0.700109    3.294569    7.347268   -2.000000    1.000000
    121 X     c     0.702345    3.289252    3.015867   -2.000000    1.000000
    122 X     c     0.702348    3.289246    3.015867   -2.000000    1.000000
    123 X     c     2.168475    1.807339    5.158906   -2.000000    1.000000
    124 X     c     8.166952    4.783864    5.157534   -2.000000    1.000000
    125 X     c     0.702336    0.312326    3.015867   -2.000000    1.000000
    126 X     c     8.166776    4.783874    5.157522   -2.000000    1.000000
    127 X     c     2.168298    1.807328    5.158917   -2.000000    1.000000
    128 X     c     0.702344    3.289247    3.015783   -2.000000    1.000000
    129 X     c     0.702343    0.312327    3.015786   -2.000000    1.000000
    130 X     c     0.702341    0.312333    3.015867   -2.000000    1.000000
    131 X     c     8.167073    4.783895    5.157029   -2.000000    1.000000
    132 X     c     2.168179    1.807362    5.158408   -2.000000    1.000000
    133 X     c     8.166500    1.798132    5.156006   -2.000000    1.000000
    134 X     c     2.168878    4.774899    5.157332   -2.000000    1.000000
    135 X     c     8.166693    1.798138    5.156017   -2.000000    1.000000
    136 X     c     2.168689    4.774898    5.157345   -2.000000    1.000000
    137 X     c     8.166815    1.798115    5.155422   -2.000000    1.000000
    138 X     c     2.168573    4.774882    5.156748   -2.000000    1.000000
    139 X     c     8.902126    0.353655    9.621641   -2.000000    1.000000
    140 X     c     7.179429    3.444902    9.649484   -2.000000    1.000000
    141 X     c     3.151933    0.466044    9.653376   -2.000000    1.000000
    142 X     c     0.786740    3.494321    9.776403   -2.000000    1.000000
    143 X     c     5.164765    4.732965    7.937681   -2.000000    1.000000
    144 X     c     5.175407    1.751863    7.933342   -2.000000    1.000000
    145 X     c     6.465038    0.420418    9.809788   -2.000000    1.000000
    146 X     c     3.841029    3.391909    9.822353   -2.000000    1.000000
    147 X     c     5.151169    4.700123    2.662476   -2.000000    1.000000
    148 X     c     6.463465    3.407511    5.497629   -2.000000    1.000000
    149 X     c     7.984642    4.876306    2.704995   -2.000000    1.000000
    150 X     c     2.355290    4.915477    3.305243   -2.000000    1.000000
    151 X     c     5.169495    1.723112    2.662111   -2.000000    1.000000
    152 X     c     3.876090    0.187576    4.891247   -2.000000    1.000000
    153 X     c     8.167997    4.721780    6.865901   -2.000000    1.000000
    154 X     c     6.435544    0.163273    4.921848   -2.000000    1.000000
    155 X     c     6.964273    3.413809    0.766572   -2.000000    1.000000
    156 X     c     7.988005    1.704053    2.702602   -2.000000    1.000000
    157 X     c     2.351507    1.899772    2.705510   -2.000000    1.000000
    158 X     c     3.894071    3.435236    4.918412   -2.000000    1.000000
    159 X     c     0.397474    0.438748    0.759904   -2.000000    1.000000
    160 X     c     3.371125    3.413876    0.766722   -2.000000    1.000000
    161 X     c     3.371128    0.187637    0.766751   -2.000000    1.000000
    162 X     c     0.389291    3.395844    4.968091   -2.000000    1.000000
    163 X     c     0.414751    0.201105    4.927208   -2.000000    1.000000
    164 X     c     1.941455    1.571955    7.380783   -2.000000    1.000000
    165 X     c     8.348610    2.054961    7.390691   -2.000000    1.000000
    166 X     c     6.355462    0.442190    0.754705   -2.000000    1.000000
    167 X     c     0.397523    3.162678    0.759831   -2.000000    1.000000
    168 X     c     1.982098    5.031170    7.393218   -2.000000    1.000000
    169 X     c     0.524321    5.789150    9.740686   -2.000000    1.000000
    170 X     c     3.552362    5.761178    9.576808   -2.000000    1.000000
    171 X     c     6.770768    2.791284    9.575268   -2.000000    1.000000
    172 X     c     1.411167    3.328841    9.622494   -2.000000    1.000000
    173 X     c     5.489969    4.680567    7.324395   -2.000000    1.000000
    174 X     c     5.117659    2.178772    7.422969   -2.000000    1.000000
    175 X     c     0.594849    0.520586    9.777762   -2.000000    1.000000
    176 X     c     3.596682    3.990352    9.523818   -2.000000    1.000000
    177 X     c     6.498055    3.378356    9.655989   -2.000000    1.000000
    178 X     c     6.710724    1.018825    9.513512   -2.000000    1.000000
    179 X     c     3.832425    0.390179    9.658117   -2.000000    1.000000
    180 X     c     5.212939    5.154146    7.421115   -2.000000    1.000000
    181 X     c     0.860603    3.290097    9.244518   -2.000000    1.000000
    182 X     c     3.681061    0.653693    0.871427   -2.000000    1.000000
    183 X     c     5.163239    5.112117    3.044792   -2.000000    1.000000
    184 X     c     4.900547    4.712003    7.296090   -2.000000    1.000000
    185 X     c     5.473888    4.670793    3.162510   -2.000000    1.000000
    186 X     c     5.424889    1.736284    7.285832   -2.000000    1.000000
    187 X     c     2.347980    4.874844    2.702985   -2.000000    1.000000
    188 X     c     8.121181    4.443119    3.035499   -2.000000    1.000000
    189 X     c     8.490162    4.847517    3.010611   -2.000000    1.000000
    190 X     c     8.263542    5.106334    7.277377   -2.000000    1.000000
    191 X     c     2.214159    1.466160    3.035035   -2.000000    1.000000
    192 X     c     6.649629    3.347854    1.260292   -2.000000    1.000000
    193 X     c     0.706615    2.956262    5.078204   -2.000000    1.000000
    194 X     c     3.844614    3.392822    5.518590   -2.000000    1.000000
    195 X     c     3.755237    2.953497    5.174330   -2.000000    1.000000
    196 X     c     6.654183    5.924784    0.871654   -2.000000    1.000000
    197 X     c     2.069820    2.130240    7.277479   -2.000000    1.000000
    198 X     c     0.702358    3.630641    0.872286   -2.000000    1.000000
    199 X     c     7.828299    4.738690    7.341382   -2.000000    1.000000
    200 X     c     6.585016    2.955474    5.185279   -2.000000    1.000000
    201 X     c     6.723212    3.294118    9.139523   -2.000000    1.000000
    202 X     c     6.968260    3.350457    5.186695   -2.000000    1.000000
    203 X     c     0.859165    2.809412    9.736457   -2.000000    1.000000
    204 X     c     3.980213    3.418846    0.754945   -2.000000    1.000000
    205 X     c     0.524705    0.314107    9.246504   -2.000000    1.000000
    206 X     c     3.605066    0.310240    9.141922   -2.000000    1.000000
    207 X     c     6.456161    3.417398    4.892000   -2.000000    1.000000
    208 X     c     6.490312    0.213639    5.520552   -2.000000    1.000000
    209 X     c     0.980289    3.413602    4.918766   -2.000000    1.000000
    210 X     c     1.007138    0.438955    0.759857   -2.000000    1.000000
    211 X     c     2.502770    1.760918    7.344246   -2.000000    1.000000
    212 X     c     4.836030    1.708284    7.327846   -2.000000    1.000000
    213 X     c     7.983611    4.915325    3.307497   -2.000000    1.000000
    214 X     c     4.884216    4.657235    3.195756   -2.000000    1.000000
    215 X     c     6.964513    0.436552    0.766885   -2.000000    1.000000
    216 X     c     8.490039    1.730618    3.014142   -2.000000    1.000000
    217 X     c     1.007362    0.200630    4.958531   -2.000000    1.000000
    218 X     c     3.365724    0.252819    5.188844   -2.000000    1.000000
    219 X     c     7.980061    1.661984    3.304820   -2.000000    1.000000
    220 X     c     3.656228    3.547737    9.137771   -2.000000    1.000000
    221 X     c     5.462015    1.686564    3.181219   -2.000000    1.000000
    222 X     c     6.653399    0.577577    9.126882   -2.000000    1.000000
    223 X     c     7.811664    1.838247    7.267592   -2.000000    1.000000
    224 X     c     2.351229    1.937911    3.308016   -2.000000    1.000000
    225 X     c     6.968989    0.251079    5.166609   -2.000000    1.000000
    226 X     c     2.519603    4.815790    7.269276   -2.000000    1.000000
    227 X     c     5.168078    2.135210    3.044387   -2.000000    1.000000
    228 X     c     7.111234    0.587222    9.520884   -2.000000    1.000000
    229 X     c     3.195926    3.557950    9.530097   -2.000000    1.000000
    230 X     c     4.871197    1.687745    3.177719   -2.000000    1.000000
    231 X     c     0.726261    3.369569    5.458171   -2.000000    1.000000
    232 X     c     8.121295    2.135303    3.036951   -2.000000    1.000000
    233 X     c     2.213638    4.443066    3.036243   -2.000000    1.000000
    234 X     c     0.702246    3.229754    1.259428   -2.000000    1.000000
    235 X     c     1.845290    1.870682    3.009917   -2.000000    1.000000
    236 X     c     6.649419    0.370870    1.260279   -2.000000    1.000000
    237 X     c     6.582558    0.645761    5.170259   -2.000000    1.000000
    238 X     c     3.685934    3.347626    1.260282   -2.000000    1.000000
    239 X     c     1.845482    4.848360    3.013876   -2.000000    1.000000
    240 X     c     0.702320    0.371877    1.259418   -2.000000    1.000000
    241 X     c     3.685878    0.254052    1.260314   -2.000000    1.000000
    242 X     c     3.749122    0.647028    5.188227   -2.000000    1.000000
    243 X     c     6.355211    3.418710    0.754981   -2.000000    1.000000
    244 X     c     8.388327    4.546311    7.377454   -2.000000    1.000000
    245 X     c     2.101893    4.832665    6.856356   -2.000000    1.000000
    246 X     c     3.872075    0.193022    5.496820   -2.000000    1.000000
    247 X     c     8.229299    1.854683    6.854651   -2.000000    1.000000
    248 X     c     8.264835    1.482545    7.290685   -2.000000    1.000000
    249 X     c     3.980233    0.182591    0.755028   -2.000000    1.000000
    250 X     c     2.163698    1.742921    6.868262   -2.000000    1.000000
    251 X     c     6.654430    2.947867    0.871724   -2.000000    1.000000
    252 X     c     3.364337    3.343536    5.168451   -2.000000    1.000000
    253 X     c     0.702409    5.924778    0.872333   -2.000000    1.000000
    254 X     c     3.681044    2.947893    0.871526   -2.000000    1.000000
    255 X     c     0.684575    0.235893    5.458611   -2.000000    1.000000
    256 X     c     2.067273    4.459372    7.291361   -2.000000    1.000000
    257 X     c     1.007205    3.162653    0.759977   -2.000000    1.000000
    258 X     c     0.705067    0.649158    5.079017   -2.000000    1.000000
--------------------------------------------------------------------------------



********************************************************************************
*  General input information                                                   *
********************************************************************************

  Species output for all configurations : 

--------------------------------------------------------------------------------
  Species    Type    Atomic    Atomic    Charge       Radii (Angs)     Library
                     Number     Mass       (e)     Cova   Ionic  VDW   Symbol
--------------------------------------------------------------------------------
    O        Core        8      16.00   6.000000   0.730  0.000  1.360          
    H        Core        1       1.01   1.000000   0.370  0.000  1.080          
    Mg       Core       12      24.31   8.000000   1.100  0.000  1.640          
    X        Core      107       0.00  -2.000000   0.000  0.000  0.000          
--------------------------------------------------------------------------------


  Lattice summation method               =    Ewald          (3-D)
                                         =    Parry          (2-D)
                                         =    Saunders et al (1-D)
  Accuracy factor for lattice sums       =   12.000


  Time limit = Infinity

********************************************************************************
*  Output for configuration   1                                                *
********************************************************************************


  Components of energy : 

--------------------------------------------------------------------------------
  Interatomic potentials     =           0.00000000 eV
  Monopole - monopole (real) =      -33276.63260419 eV
  Monopole - monopole (recip)=       -7219.73917776 eV
  Monopole - monopole (total)=      -40496.37178195 eV
--------------------------------------------------------------------------------
  Total lattice energy       =      -40496.37178195 eV
--------------------------------------------------------------------------------
  Total lattice energy       =        -3907280.8332 kJ/(mole unit cells)
--------------------------------------------------------------------------------

  Born effective charge tensors : 

-------------------------------------------------------------------------------
  Atom             x           y             z
-------------------------------------------------------------------------------
   1 Mg    x       8.0000      0.0000      0.0000
           y       0.0000      8.0000      0.0000
           z       0.0000      0.0000      8.0000
-------------------------------------------------------------------------------
   2 Mg    x       8.0000      0.0000      0.0000
           y       0.0000      8.0000      0.0000
           z       0.0000      0.0000      8.0000
-------------------------------------------------------------------------------
   3 Mg    x       8.0000      0.0000      0.0000
           y       0.0000      8.0000      0.0000
           z       0.0000      0.0000      8.0000
-------------------------------------------------------------------------------
   4 Mg    x       8.0000      0.0000      0.0000
           y       0.0000      8.0000      0.0000
           z       0.0000      0.0000      8.0000
-------------------------------------------------------------------------------
   5 Mg    x       8.0000      0.0000      0.0000
           y       0.0000      8.0000      0.0000
           z       0.0000      0.0000      8.0000
-------------------------------------------------------------------------------
   6 Mg    x       8.0000      0.0000      0.0000
           y       0.0000      8.0000      0.0000
           z       0.0000      0.0000      8.0000
-------------------------------------------------------------------------------
   7 Mg    x       8.0000      0.0000      0.0000
           y       0.0000      8.0000      0.0000
           z       0.0000      0.0000      8.0000
-------------------------------------------------------------------------------
   8 Mg    x       8.0000      0.0000      0.0000
           y       0.0000      8.0000      0.0000
           z       0.0000      0.0000      8.0000
-------------------------------------------------------------------------------
   9 Mg    x       8.0000      0.0000      0.0000
           y       0.0000      8.0000      0.0000
           z       0.0000      0.0000      8.0000
-------------------------------------------------------------------------------
  10 Mg    x       8.0000      0.0000      0.0000
           y       0.0000      8.0000      0.0000
           z       0.0000      0.0000      8.0000
-------------------------------------------------------------------------------
  11 Mg    x       8.0000      0.0000      0.0000
           y       0.0000      8.0000      0.0000
           z       0.0000      0.0000      8.0000
-------------------------------------------------------------------------------
  12 Mg    x       8.0000      0.0000      0.0000
           y       0.0000      8.0000      0.0000
           z       0.0000      0.0000      8.0000
-------------------------------------------------------------------------------
  13 Mg    x       8.0000      0.0000      0.0000
           y       0.0000      8.0000      0.0000
           z       0.0000      0.0000      8.0000
-------------------------------------------------------------------------------
  14 Mg    x       8.0000      0.0000      0.0000
           y       0.0000      8.0000      0.0000
           z       0.0000      0.0000      8.0000
-------------------------------------------------------------------------------
  15 Mg    x       8.0000      0.0000      0.0000
           y       0.0000      8.0000      0.0000
           z       0.0000      0.0000      8.0000
-------------------------------------------------------------------------------
  16 Mg    x       8.0000      0.0000      0.0000
           y       0.0000      8.0000      0.0000
           z       0.0000      0.0000      8.0000
-------------------------------------------------------------------------------
  17 Mg    x       8.0000      0.0000      0.0000
           y       0.0000      8.0000      0.0000
           z       0.0000      0.0000      8.0000
-------------------------------------------------------------------------------
  18 Mg    x       8.0000      0.0000      0.0000
           y       0.0000      8.0000      0.0000
           z       0.0000      0.0000      8.0000
-------------------------------------------------------------------------------
  19 Mg    x       8.0000      0.0000      0.0000
           y       0.0000      8.0000      0.0000
           z       0.0000      0.0000      8.0000
-------------------------------------------------------------------------------
  20 Mg    x       8.0000      0.0000      0.0000
           y       0.0000      8.0000      0.0000
           z       0.0000      0.0000      8.0000
-------------------------------------------------------------------------------
  21 Mg    x       8.0000      0.0000      0.0000
           y       0.0000      8.0000      0.0000
           z       0.0000      0.0000      8.0000
-------------------------------------------------------------------------------
  22 Mg    x       8.0000      0.0000      0.0000
           y       0.0000      8.0000      0.0000
           z       0.0000      0.0000      8.0000
-------------------------------------------------------------------------------
  23 Mg    x       8.0000      0.0000      0.0000
           y       0.0000      8.0000      0.0000
           z       0.0000      0.0000      8.0000
-------------------------------------------------------------------------------
  24 Mg    x       8.0000      0.0000      0.0000
           y       0.0000      8.0000      0.0000
           z       0.0000      0.0000      8.0000
-------------------------------------------------------------------------------
  25 O     x       6.0000      0.0000      0.0000
           y       0.0000      6.0000      0.0000
           z       0.0000      0.0000      6.0000
-------------------------------------------------------------------------------
  26 O     x       6.0000      0.0000      0.0000
           y       0.0000      6.0000      0.0000
           z       0.0000      0.0000      6.0000
-------------------------------------------------------------------------------
  27 O     x       6.0000      0.0000      0.0000
           y       0.0000      6.0000      0.0000
           z       0.0000      0.0000      6.0000
-------------------------------------------------------------------------------
  28 O     x       6.0000      0.0000      0.0000
           y       0.0000      6.0000      0.0000
           z       0.0000      0.0000      6.0000
-------------------------------------------------------------------------------
  29 O     x       6.0000      0.0000      0.0000
           y       0.0000      6.0000      0.0000
           z       0.0000      0.0000      6.0000
-------------------------------------------------------------------------------
  30 O     x       6.0000      0.0000      0.0000
           y       0.0000      6.0000      0.0000
           z       0.0000      0.0000      6.0000
-------------------------------------------------------------------------------
  31 O     x       6.0000      0.0000      0.0000
           y       0.0000      6.0000      0.0000
           z       0.0000      0.0000      6.0000
-------------------------------------------------------------------------------
  32 O     x       6.0000      0.0000      0.0000
           y       0.0000      6.0000      0.0000
           z       0.0000      0.0000      6.0000
-------------------------------------------------------------------------------
  33 O     x       6.0000      0.0000      0.0000
           y       0.0000      6.0000      0.0000
           z       0.0000      0.0000      6.0000
-------------------------------------------------------------------------------
  34 O     x       6.0000      0.0000      0.0000
           y       0.0000      6.0000      0.0000
           z       0.0000      0.0000      6.0000
-------------------------------------------------------------------------------
  35 O     x       6.0000      0.0000      0.0000
           y       0.0000      6.0000      0.0000
           z       0.0000      0.0000      6.0000
-------------------------------------------------------------------------------
  36 O     x       6.0000      0.0000      0.0000
           y       0.0000      6.0000      0.0000
           z       0.0000      0.0000      6.0000
-------------------------------------------------------------------------------
  37 O     x       6.0000      0.0000      0.0000
           y       0.0000      6.0000      0.0000
           z       0.0000      0.0000      6.0000
-------------------------------------------------------------------------------
  38 O     x       6.0000      0.0000      0.0000
           y       0.0000      6.0000      0.0000
           z       0.0000      0.0000      6.0000
-------------------------------------------------------------------------------
  39 O     x       6.0000      0.0000      0.0000
           y       0.0000      6.0000      0.0000
           z       0.0000      0.0000      6.0000
-------------------------------------------------------------------------------
  40 O     x       6.0000      0.0000      0.0000
           y       0.0000      6.0000      0.0000
           z       0.0000      0.0000      6.0000
-------------------------------------------------------------------------------
  41 O     x       6.0000      0.0000      0.0000
           y       0.0000      6.0000      0.0000
           z       0.0000      0.0000      6.0000
-------------------------------------------------------------------------------
  42 O     x       6.0000      0.0000      0.0000
           y       0.0000      6.0000      0.0000
           z       0.0000      0.0000      6.0000
-------------------------------------------------------------------------------
  43 O     x       6.0000      0.0000      0.0000
           y       0.0000      6.0000      0.0000
           z       0.0000      0.0000      6.0000
-------------------------------------------------------------------------------
  44 O     x       6.0000      0.0000      0.0000
           y       0.0000      6.0000      0.0000
           z       0.0000      0.0000      6.0000
-------------------------------------------------------------------------------
  45 O     x       6.0000      0.0000      0.0000
           y       0.0000      6.0000      0.0000
           z       0.0000      0.0000      6.0000
-------------------------------------------------------------------------------
  46 O     x       6.0000      0.0000      0.0000
           y       0.0000      6.0000      0.0000
           z       0.0000      0.0000      6.0000
-------------------------------------------------------------------------------
  47 O     x       6.0000      0.0000      0.0000
           y       0.0000      6.0000      0.0000
           z       0.0000      0.0000      6.0000
-------------------------------------------------------------------------------
  48 O     x       6.0000      0.0000      0.0000
           y       0.0000      6.0000      0.0000
           z       0.0000      0.0000      6.0000
-------------------------------------------------------------------------------
  49 O     x       6.0000      0.0000      0.0000
           y       0.0000      6.0000      0.0000
           z       0.0000      0.0000      6.0000
-------------------------------------------------------------------------------
  50 O     x       6.0000      0.0000      0.0000
           y       0.0000      6.0000      0.0000
           z       0.0000      0.0000      6.0000
-------------------------------------------------------------------------------
  51 O     x       6.0000      0.0000      0.0000
           y       0.0000      6.0000      0.0000
           z       0.0000      0.0000      6.0000
-------------------------------------------------------------------------------
  52 O     x       6.0000      0.0000      0.0000
           y       0.0000      6.0000      0.0000
           z       0.0000      0.0000      6.0000
-------------------------------------------------------------------------------
  53 O     x       6.0000      0.0000      0.0000
           y       0.0000      6.0000      0.0000
           z       0.0000      0.0000      6.0000
-------------------------------------------------------------------------------
  54 O     x       6.0000      0.0000      0.0000
           y       0.0000      6.0000      0.0000
           z       0.0000      0.0000      6.0000
-------------------------------------------------------------------------------
  55 H     x       1.0000      0.0000      0.0000
           y       0.0000      1.0000      0.0000
           z       0.0000      0.0000      1.0000
-------------------------------------------------------------------------------
  56 H     x       1.0000      0.0000      0.0000
           y       0.0000      1.0000      0.0000
           z       0.0000      0.0000      1.0000
-------------------------------------------------------------------------------
  57 H     x       1.0000      0.0000      0.0000
           y       0.0000      1.0000      0.0000
           z       0.0000      0.0000      1.0000
-------------------------------------------------------------------------------
  58 H     x       1.0000      0.0000      0.0000
           y       0.0000      1.0000      0.0000
           z       0.0000      0.0000      1.0000
-------------------------------------------------------------------------------
  59 H     x       1.0000      0.0000      0.0000
           y       0.0000      1.0000      0.0000
           z       0.0000      0.0000      1.0000
-------------------------------------------------------------------------------
  60 H     x       1.0000      0.0000      0.0000
           y       0.0000      1.0000      0.0000
           z       0.0000      0.0000      1.0000
-------------------------------------------------------------------------------
  61 H     x       1.0000      0.0000      0.0000
           y       0.0000      1.0000      0.0000
           z       0.0000      0.0000      1.0000
-------------------------------------------------------------------------------
  62 H     x       1.0000      0.0000      0.0000
           y       0.0000      1.0000      0.0000
           z       0.0000      0.0000      1.0000
-------------------------------------------------------------------------------
  63 H     x       1.0000      0.0000      0.0000
           y       0.0000      1.0000      0.0000
           z       0.0000      0.0000      1.0000
-------------------------------------------------------------------------------
  64 H     x       1.0000      0.0000      0.0000
           y       0.0000      1.0000      0.0000
           z       0.0000      0.0000      1.0000
-------------------------------------------------------------------------------
  65 H     x       1.0000      0.0000      0.0000
           y       0.0000      1.0000      0.0000
           z       0.0000      0.0000      1.0000
-------------------------------------------------------------------------------
  66 H     x       1.0000      0.0000      0.0000
           y       0.0000      1.0000      0.0000
           z       0.0000      0.0000      1.0000
-------------------------------------------------------------------------------
  67 X     x      -2.0000      0.0000      0.0000
           y       0.0000     -2.0000      0.0000
           z       0.0000      0.0000     -2.0000
-------------------------------------------------------------------------------
  68 X     x      -2.0000      0.0000      0.0000
           y       0.0000     -2.0000      0.0000
           z       0.0000      0.0000     -2.0000
-------------------------------------------------------------------------------
  69 X     x      -2.0000      0.0000      0.0000
           y       0.0000     -2.0000      0.0000
           z       0.0000      0.0000     -2.0000
-------------------------------------------------------------------------------
  70 X     x      -2.0000      0.0000      0.0000
           y       0.0000     -2.0000      0.0000
           z       0.0000      0.0000     -2.0000
-------------------------------------------------------------------------------
  71 X     x      -2.0000      0.0000      0.0000
           y       0.0000     -2.0000      0.0000
           z       0.0000      0.0000     -2.0000
-------------------------------------------------------------------------------
  72 X     x      -2.0000      0.0000      0.0000
           y       0.0000     -2.0000      0.0000
           z       0.0000      0.0000     -2.0000
-------------------------------------------------------------------------------
  73 X     x      -2.0000      0.0000      0.0000
           y       0.0000     -2.0000      0.0000
           z       0.0000      0.0000     -2.0000
-------------------------------------------------------------------------------
  74 X     x      -2.0000      0.0000      0.0000
           y       0.0000     -2.0000      0.0000
           z       0.0000      0.0000     -2.0000
-------------------------------------------------------------------------------
  75 X     x      -2.0000      0.0000      0.0000
           y       0.0000     -2.0000      0.0000
           z       0.0000      0.0000     -2.0000
-------------------------------------------------------------------------------
  76 X     x      -2.0000      0.0000      0.0000
           y       0.0000     -2.0000      0.0000
           z       0.0000      0.0000     -2.0000
-------------------------------------------------------------------------------
  77 X     x      -2.0000      0.0000      0.0000
           y       0.0000     -2.0000      0.0000
           z       0.0000      0.0000     -2.0000
-------------------------------------------------------------------------------
  78 X     x      -2.0000      0.0000      0.0000
           y       0.0000     -2.0000      0.0000
           z       0.0000      0.0000     -2.0000
-------------------------------------------------------------------------------
  79 X     x      -2.0000      0.0000      0.0000
           y       0.0000     -2.0000      0.0000
           z       0.0000      0.0000     -2.0000
-------------------------------------------------------------------------------
  80 X     x      -2.0000      0.0000      0.0000
           y       0.0000     -2.0000      0.0000
           z       0.0000      0.0000     -2.0000
-------------------------------------------------------------------------------
  81 X     x      -2.0000      0.0000      0.0000
           y       0.0000     -2.0000      0.0000
           z       0.0000      0.0000     -2.0000
-------------------------------------------------------------------------------
  82 X     x      -2.0000      0.0000      0.0000
           y       0.0000     -2.0000      0.0000
           z       0.0000      0.0000     -2.0000
-------------------------------------------------------------------------------
  83 X     x      -2.0000      0.0000      0.0000
           y       0.0000     -2.0000      0.0000
           z       0.0000      0.0000     -2.0000
-------------------------------------------------------------------------------
  84 X     x      -2.0000      0.0000      0.0000
           y       0.0000     -2.0000      0.0000
           z       0.0000      0.0000     -2.0000
-------------------------------------------------------------------------------
  85 X     x      -2.0000      0.0000      0.0000
           y       0.0000     -2.0000      0.0000
           z       0.0000      0.0000     -2.0000
-------------------------------------------------------------------------------
  86 X     x      -2.0000      0.0000      0.0000
           y       0.0000     -2.0000      0.0000
           z       0.0000      0.0000     -2.0000
-------------------------------------------------------------------------------
  87 X     x      -2.0000      0.0000      0.0000
           y       0.0000     -2.0000      0.0000
           z       0.0000      0.0000     -2.0000
-------------------------------------------------------------------------------
  88 X     x      -2.0000      0.0000      0.0000
           y       0.0000     -2.0000      0.0000
           z       0.0000      0.0000     -2.0000
-------------------------------------------------------------------------------
  89 X     x      -2.0000      0.0000      0.0000
           y       0.0000     -2.0000      0.0000
           z       0.0000      0.0000     -2.0000
-------------------------------------------------------------------------------
  90 X     x      -2.0000      0.0000      0.0000
           y       0.0000     -2.0000      0.0000
           z       0.0000      0.0000     -2.0000
-------------------------------------------------------------------------------
  91 X     x      -2.0000      0.0000      0.0000
           y       0.0000     -2.0000      0.0000
           z       0.0000      0.0000     -2.0000
-------------------------------------------------------------------------------
  92 X     x      -2.0000      0.0000      0.0000
           y       0.0000     -2.0000      0.0000
           z       0.0000      0.0000     -2.0000
-------------------------------------------------------------------------------
  93 X     x      -2.0000      0.0000      0.0000
           y       0.0000     -2.0000      0.0000
           z       0.0000      0.0000     -2.0000
-------------------------------------------------------------------------------
  94 X     x      -2.0000      0.0000      0.0000
           y       0.0000     -2.0000      0.0000
           z       0.0000      0.0000     -2.0000
-------------------------------------------------------------------------------
  95 X     x      -2.0000      0.0000      0.0000
           y       0.0000     -2.0000      0.0000
           z       0.0000      0.0000     -2.0000
-------------------------------------------------------------------------------
  96 X     x      -2.0000      0.0000      0.0000
           y       0.0000     -2.0000      0.0000
           z       0.0000      0.0000     -2.0000
-------------------------------------------------------------------------------
  97 X     x      -2.0000      0.0000      0.0000
           y       0.0000     -2.0000      0.0000
           z       0.0000      0.0000     -2.0000
-------------------------------------------------------------------------------
  98 X     x      -2.0000      0.0000      0.0000
           y       0.0000     -2.0000      0.0000
           z       0.0000      0.0000     -2.0000
-------------------------------------------------------------------------------
  99 X     x      -2.0000      0.0000      0.0000
           y       0.0000     -2.0000      0.0000
           z       0.0000      0.0000     -2.0000
-------------------------------------------------------------------------------
 100 X     x      -2.0000      0.0000      0.0000
           y       0.0000     -2.0000      0.0000
           z       0.0000      0.0000     -2.0000
-------------------------------------------------------------------------------
 101 X     x      -2.0000      0.0000      0.0000
           y       0.0000     -2.0000      0.0000
           z       0.0000      0.0000     -2.0000
-------------------------------------------------------------------------------
 102 X     x      -2.0000      0.0000      0.0000
           y       0.0000     -2.0000      0.0000
           z       0.0000      0.0000     -2.0000
-------------------------------------------------------------------------------
 103 X     x      -2.0000      0.0000      0.0000
           y       0.0000     -2.0000      0.0000
           z       0.0000      0.0000     -2.0000
-------------------------------------------------------------------------------
 104 X     x      -2.0000      0.0000      0.0000
           y       0.0000     -2.0000      0.0000
           z       0.0000      0.0000     -2.0000
-------------------------------------------------------------------------------
 105 X     x      -2.0000      0.0000      0.0000
           y       0.0000     -2.0000      0.0000
           z       0.0000      0.0000     -2.0000
-------------------------------------------------------------------------------
 106 X     x      -2.0000      0.0000      0.0000
           y       0.0000     -2.0000      0.0000
           z       0.0000      0.0000     -2.0000
-------------------------------------------------------------------------------
 107 X     x      -2.0000      0.0000      0.0000
           y       0.0000     -2.0000      0.0000
           z       0.0000      0.0000     -2.0000
-------------------------------------------------------------------------------
 108 X     x      -2.0000      0.0000      0.0000
           y       0.0000     -2.0000      0.0000
           z       0.0000      0.0000     -2.0000
-------------------------------------------------------------------------------
 109 X     x      -2.0000      0.0000      0.0000
           y       0.0000     -2.0000      0.0000
           z       0.0000      0.0000     -2.0000
-------------------------------------------------------------------------------
 110 X     x      -2.0000      0.0000      0.0000
           y       0.0000     -2.0000      0.0000
           z       0.0000      0.0000     -2.0000
-------------------------------------------------------------------------------
 111 X     x      -2.0000      0.0000      0.0000
           y       0.0000     -2.0000      0.0000
           z       0.0000      0.0000     -2.0000
-------------------------------------------------------------------------------
 112 X     x      -2.0000      0.0000      0.0000
           y       0.0000     -2.0000      0.0000
           z       0.0000      0.0000     -2.0000
-------------------------------------------------------------------------------
 113 X     x      -2.0000      0.0000      0.0000
           y       0.0000     -2.0000      0.0000
           z       0.0000      0.0000     -2.0000
-------------------------------------------------------------------------------
 114 X     x      -2.0000      0.0000      0.0000
           y       0.0000     -2.0000      0.0000
           z       0.0000      0.0000     -2.0000
-------------------------------------------------------------------------------
 115 X     x      -2.0000      0.0000      0.0000
           y       0.0000     -2.0000      0.0000
           z       0.0000      0.0000     -2.0000
-------------------------------------------------------------------------------
 116 X     x      -2.0000      0.0000      0.0000
           y       0.0000     -2.0000      0.0000
           z       0.0000      0.0000     -2.0000
-------------------------------------------------------------------------------
 117 X     x      -2.0000      0.0000      0.0000
           y       0.0000     -2.0000      0.0000
           z       0.0000      0.0000     -2.0000
-------------------------------------------------------------------------------
 118 X     x      -2.0000      0.0000      0.0000
           y       0.0000     -2.0000      0.0000
           z       0.0000      0.0000     -2.0000
-------------------------------------------------------------------------------
 119 X     x      -2.0000      0.0000      0.0000
           y       0.0000     -2.0000      0.0000
           z       0.0000      0.0000     -2.0000
-------------------------------------------------------------------------------
 120 X     x      -2.0000      0.0000      0.0000
           y       0.0000     -2.0000      0.0000
           z       0.0000      0.0000     -2.0000
-------------------------------------------------------------------------------
 121 X     x      -2.0000      0.0000      0.0000
           y       0.0000     -2.0000      0.0000
           z       0.0000      0.0000     -2.0000
-------------------------------------------------------------------------------
 122 X     x      -2.0000      0.0000      0.0000
           y       0.0000     -2.0000      0.0000
           z       0.0000      0.0000     -2.0000
-------------------------------------------------------------------------------
 123 X     x      -2.0000      0.0000      0.0000
           y       0.0000     -2.0000      0.0000
           z       0.0000      0.0000     -2.0000
-------------------------------------------------------------------------------
 124 X     x      -2.0000      0.0000      0.0000
           y       0.0000     -2.0000      0.0000
           z       0.0000      0.0000     -2.0000
-------------------------------------------------------------------------------
 125 X     x      -2.0000      0.0000      0.0000
           y       0.0000     -2.0000      0.0000
           z       0.0000      0.0000     -2.0000
-------------------------------------------------------------------------------
 126 X     x      -2.0000      0.0000      0.0000
           y       0.0000     -2.0000      0.0000
           z       0.0000      0.0000     -2.0000
-------------------------------------------------------------------------------
 127 X     x      -2.0000      0.0000      0.0000
           y       0.0000     -2.0000      0.0000
           z       0.0000      0.0000     -2.0000
-------------------------------------------------------------------------------
 128 X     x      -2.0000      0.0000      0.0000
           y       0.0000     -2.0000      0.0000
           z       0.0000      0.0000     -2.0000
-------------------------------------------------------------------------------
 129 X     x      -2.0000      0.0000      0.0000
           y       0.0000     -2.0000      0.0000
           z       0.0000      0.0000     -2.0000
-------------------------------------------------------------------------------
 130 X     x      -2.0000      0.0000      0.0000
           y       0.0000     -2.0000      0.0000
           z       0.0000      0.0000     -2.0000
-------------------------------------------------------------------------------
 131 X     x      -2.0000      0.0000      0.0000
           y       0.0000     -2.0000      0.0000
           z       0.0000      0.0000     -2.0000
-------------------------------------------------------------------------------
 132 X     x      -2.0000      0.0000      0.0000
           y       0.0000     -2.0000      0.0000
           z       0.0000      0.0000     -2.0000
-------------------------------------------------------------------------------
 133 X     x      -2.0000      0.0000      0.0000
           y       0.0000     -2.0000      0.0000
           z       0.0000      0.0000     -2.0000
-------------------------------------------------------------------------------
 134 X     x      -2.0000      0.0000      0.0000
           y       0.0000     -2.0000      0.0000
           z       0.0000      0.0000     -2.0000
-------------------------------------------------------------------------------
 135 X     x      -2.0000      0.0000      0.0000
           y       0.0000     -2.0000      0.0000
           z       0.0000      0.0000     -2.0000
-------------------------------------------------------------------------------
 136 X     x      -2.0000      0.0000      0.0000
           y       0.0000     -2.0000      0.0000
           z       0.0000      0.0000     -2.0000
-------------------------------------------------------------------------------
 137 X     x      -2.0000      0.0000      0.0000
           y       0.0000     -2.0000      0.0000
           z       0.0000      0.0000     -2.0000
-------------------------------------------------------------------------------
 138 X     x      -2.0000      0.0000      0.0000
           y       0.0000     -2.0000      0.0000
           z       0.0000      0.0000     -2.0000
-------------------------------------------------------------------------------
 139 X     x      -2.0000      0.0000      0.0000
           y       0.0000     -2.0000      0.0000
           z       0.0000      0.0000     -2.0000
-------------------------------------------------------------------------------
 140 X     x      -2.0000      0.0000      0.0000
           y       0.0000     -2.0000      0.0000
           z       0.0000      0.0000     -2.0000
-------------------------------------------------------------------------------
 141 X     x      -2.0000      0.0000      0.0000
           y       0.0000     -2.0000      0.0000
           z       0.0000      0.0000     -2.0000
-------------------------------------------------------------------------------
 142 X     x      -2.0000      0.0000      0.0000
           y       0.0000     -2.0000      0.0000
           z       0.0000      0.0000     -2.0000
-------------------------------------------------------------------------------
 143 X     x      -2.0000      0.0000      0.0000
           y       0.0000     -2.0000      0.0000
           z       0.0000      0.0000     -2.0000
-------------------------------------------------------------------------------
 144 X     x      -2.0000      0.0000      0.0000
           y       0.0000     -2.0000      0.0000
           z       0.0000      0.0000     -2.0000
-------------------------------------------------------------------------------
 145 X     x      -2.0000      0.0000      0.0000
           y       0.0000     -2.0000      0.0000
           z       0.0000      0.0000     -2.0000
-------------------------------------------------------------------------------
 146 X     x      -2.0000      0.0000      0.0000
           y       0.0000     -2.0000      0.0000
           z       0.0000      0.0000     -2.0000
-------------------------------------------------------------------------------
 147 X     x      -2.0000      0.0000      0.0000
           y       0.0000     -2.0000      0.0000
           z       0.0000      0.0000     -2.0000
-------------------------------------------------------------------------------
[...]
-------------------------------------------------------------------------------


  Time to end of properties =       2.5776 seconds



  Electrostatic potential at atomic positions :

-------------------------------------------------------------------------------
 Site  Atomic      Potential                Derivatives (V/Angs)
 No.   Label          (V)                 x           y           z
-------------------------------------------------------------------------------
     1 Mg    c    -23.596426       ************************************
     2 Mg    c    -23.219041       ************************************
     3 Mg    c    -24.189631       ************************************
     4 Mg    c    -24.339334       ************************************
     5 Mg    c    -24.176691       ************************************
     6 Mg    c    -22.906498       ************************************
     7 Mg    c    -23.715230       ************************************
     8 Mg    c    -24.280827       ************************************
     9 Mg    c    -23.708482       ************************************
    10 Mg    c    -23.208571       ************************************
    11 Mg    c    -25.028016       ************************************
    12 Mg    c    -23.565208       ************************************
    13 Mg    c    -23.554816       ************************************
    14 Mg    c    -23.973727       ************************************
    15 Mg    c    -23.687476       ************************************
    16 Mg    c    -24.163376       ************************************
    17 Mg    c    -23.456012       ************************************
    18 Mg    c    -24.891820       ************************************
    19 Mg    c    -23.984317       ************************************
    20 Mg    c    -23.457504       ************************************
    21 Mg    c    -23.827420       ************************************
    22 Mg    c    -25.109295       ************************************
    23 Mg    c    -24.447846       ************************************
    24 Mg    c    -23.669131       ************************************
    25 O     c   -303.555424           2.895482   63.009351   11.619478
    26 O     c   -301.393975          -0.302063   51.110781  -14.920864
    27 O     c   -303.283128          14.271784   64.054552   -4.295671
    28 O     c   -301.839525           7.168484   62.411941    8.455075
    29 O     c   -300.309215           2.906123  -20.296384    6.871136
    30 O     c   -301.408989           0.292870   50.643231  -14.895076
    31 O     c   -303.131004           0.320984  -62.712634  -15.549726
    32 O     c   -303.005349          -2.299464  -62.584357  -15.577600
    33 O     c   -301.467520           0.027075  -51.394203  -15.812150
    34 O     c   -300.126937          -2.974395  -19.704969    6.893481
    35 O     c   -303.526965          -1.822642  -63.386730   11.531667
    36 O     c   -303.255363         -14.368220  -64.510834   -5.106781
    37 O     c   -303.186096         -14.406472   64.511343   -4.267981
    38 O     c   -282.508824          -6.271330  -68.179755   93.240802
    39 O     c   -301.984866          -6.504176  -63.401709    8.608979
    40 O     c   -301.857433          -9.783973   67.539365    2.399594
    41 O     c   -301.368237          -0.259875  -51.050825  -14.943084
    42 O     c   -299.094625           3.126120   15.340960    5.099274
    43 O     c   -301.984398           9.709816  -68.080582    2.256459
    44 O     c   -303.160504          14.423101   64.138469   -4.872841
    45 O     c   -282.641044           9.123274  -69.570370   92.466461
    46 O     c   -299.249041          -3.235673   14.795017    5.319346
    47 O     c   -301.365979           0.202081   50.619038  -14.868848
    48 O     c   -301.399370           0.033847   51.418755  -15.689074
    49 O     c   -269.041360         -55.027911  -67.677696   65.885903
    50 O     c   -262.606410        -134.526207  -59.939791   17.432500
    51 O     c   -260.771956         -83.403108  -97.488181   28.192982
    52 O     c   -262.593814         133.712189  -61.853524   17.261862
    53 O     c   -268.741836          54.082975  -67.030034   66.015669
    54 O     c   -260.815145          83.121237  -96.745362   28.506061
    55 H     c    -41.130285           9.062191  -19.264813   93.519390
    56 H     c    -35.007533          -1.842368  -54.477467    8.899887
    57 H     c    -41.213575         -85.394576   43.686279   29.267686
    58 H     c    -40.282307          18.491186  -88.836641   25.705896
    59 H     c    -35.089811         -56.667444    7.618134    2.687966
    60 H     c    -35.059660           1.241613  -54.871372    9.010544
    61 H     c    -41.147789          85.793191   42.281350   28.882138
    62 H     c    -41.213586          -7.079506  -18.233374   94.608823
    63 H     c    -44.967296          65.959162  -55.223314   74.338114
    64 H     c    -40.300498         -18.459053  -88.893077   25.252312
    65 H     c    -35.015643          55.949917    7.505214    2.875631
    66 H     c    -44.912594         -66.438457  -55.045807   73.617461
    67 X     c    -23.453443       24109.476210************************
    68 X     c    -23.683073       ************************************
    69 X     c    -23.451942       21229.523560************************
    70 X     c    -23.550615       ************17157.834505************
    71 X     c    -23.664799       81380.013519************************
    72 X     c    -23.561022       11999.51667317748.332368************
    73 X     c    -23.456716       ************************************
    74 X     c    -23.456708       ************************************
    75 X     c    -23.686628       ************************************
    76 X     c    -23.216577       ************************************
    77 X     c    -23.455205       ************************************
    78 X     c    -23.206118       ************************************
    79 X     c    -23.455198       ************************************
    80 X     c    -23.668277       ************************************
    81 X     c    -23.553974       ************************************
    82 X     c    -23.218122       ************************************
    83 X     c    -23.686617       ************************************
    84 X     c    -23.207675       ************************************
    85 X     c    -23.217544       ************************************
    86 X     c    -23.553979       ************************************
    87 X     c    -23.207087       ************************************
    88 X     c    -23.564376       ************************************
    89 X     c    -23.668267       ************************************
    90 X     c    -23.564374       ************************************
    91 X     c    -22.904627       ************************************
    92 X     c    -23.594902       ************************************
    93 X     c    -23.712389       ************************************
    94 X     c    -23.705662       ************************************
    95 X     c    -23.714394       ************************************
    96 X     c    -23.707626       ************************************
    97 X     c    -23.713492       ************************************
    98 X     c    -22.906165       ************************************
    99 X     c    -23.706756       ************************************
   100 X     c    -22.906149       ************************************
   101 X     c    -23.596142       ************************************
   102 X     c    -23.596156       ************************************
   103 X     c    -23.984260       ************************************
   104 X     c    -24.163301       ************************************
   105 X     c    -23.984264       ************************************
   106 X     c    -24.163286       ************************************
   107 X     c    -24.163127       ************************************
   108 X     c    -23.984094       ************************************
   109 X     c    -23.827387       ************************************
   110 X     c    -23.827193       ************************************
   111 X     c    -23.973479       ************************************
   112 X     c    -23.973665       ************************************
   113 X     c    -23.827378       ************************************
   114 X     c    -23.973669       ************************************
   115 X     c    -24.176260       ************************************
   116 X     c    -24.189216       ************************************
   117 X     c    -24.176549       ************************************
   118 X     c    -24.189491       ************************************
   119 X     c    -24.176525       ************************************
   120 X     c    -24.189469       ************************************
   121 X     c    -24.891827       ************************************
   122 X     c    -24.891826       ************************************
   123 X     c    -25.027757       ************************************
   124 X     c    -24.280645       ************************************
   125 X     c    -24.447850       ************************************
   126 X     c    -24.280575       ************************************
   127 X     c    -25.027825       ************************************
   128 X     c    -24.891843       ************************************
   129 X     c    -24.447868       ************************************
   130 X     c    -24.447853       ************************************
   131 X     c    -24.280391       ************************************
   132 X     c    -25.027532       ************************************
   133 X     c    -25.108949       ************************************
   134 X     c    -24.338986       ************************************
   135 X     c    -25.109040       ************************************
   136 X     c    -24.339084       ************************************
   137 X     c    -25.108622       ************************************
   138 X     c    -24.338711       ************************************
   139 X     c     93.856501         188.770034  -15.019079  -16.557026
   140 X     c     89.962140        -109.287893  -40.507742  -38.872581
   141 X     c     89.957122         108.222418  -41.723349  -39.170272
   142 X     c    156.669007         312.409092 -430.759295 -402.143007
   143 X     c     84.882591           6.397672   15.667169 -113.458160
   144 X     c     84.915525          -8.992725   17.161717 -114.149744
   145 X     c     85.246047          55.367072   42.391069  -68.123186
   146 X     c     85.249572         -54.697066   42.113311  -68.435729
   147 X     c    114.764739          20.137835   84.447119  440.156547
   148 X     c    114.389350         190.803048 -132.070684 -381.833967
   149 X     c    113.678176         195.835927 -108.247498  384.755804
   150 X     c    115.549384        -208.727004 -163.530881 -371.952120
   151 X     c    114.625975          -2.103508   84.490596  440.640668
   152 X     c    114.510193        -198.378001  142.072322  376.582386
   153 X     c    112.269606           4.763908   57.781136  437.912302
   154 X     c    114.558033         228.542466  171.834936  347.821667
   155 X     c    114.009060        -388.796539 -144.577633  180.364531
   156 X     c    113.621406         191.565525  105.828933  387.053483
   157 X     c    113.586995        -196.862180 -109.174515  384.133249
   158 X     c    114.382643        -222.213296 -170.240881  351.376183
   159 X     c    113.723915         382.253546 -145.429849  187.676507
   160 X     c    114.072941         388.816957 -144.221572  180.197953
   161 X     c    114.079813         388.802420  144.329476  180.140498
   162 X     c    115.599734         406.947957 -121.144880  186.969495
   163 X     c    115.112951         370.702975  130.597207  237.095127
   164 X     c    122.060487         314.264292  319.728847 -214.935549
   165 X     c    122.107240        -252.267792 -348.263424 -251.667035
   166 X     c    113.707145         377.469181 -150.409461  194.200890
   167 X     c    113.635450         382.060857  145.531709  187.594846
   168 X     c    122.125626         252.813384 -346.234116 -252.697928
   169 X     c     90.240114         -17.357396  123.129274  -41.867802
   170 X     c     93.636453          20.164042  188.445063  -33.923740
   171 X     c     93.552626         -17.985055  187.816395  -33.987883
   172 X     c     93.968341        -190.112294  -15.239679  -17.628976
   173 X     c    132.959234        -453.419420  210.926265  179.355536
   174 X     c    141.595149          28.636077 -604.418155   30.729935
   175 X     c    156.874181        -309.160351 -434.469339 -402.882693
   176 X     c    127.032696         -68.966290 -488.215670  -74.976882
   177 X     c    167.184412         558.742697 -287.139024 -397.023702
   178 X     c    127.093862          70.509265 -488.989809  -74.494410
   179 X     c    167.049301        -562.687824 -278.507903 -396.214085
   180 X     c    141.580309         -30.907642 -603.293702   37.120948
   181 X     c    142.872018         129.987959   -8.013025  559.243367
   182 X     c    121.197267          -2.724234 -514.099939   55.968074
   183 X     c    126.110357           6.194684 -544.702678  -49.635231
   184 X     c    132.867690         455.753038  162.909370  223.459803
   185 X     c    117.461866        -407.540703  127.502349 -197.565499
   186 X     c    132.438673        -447.410176  162.359631  235.321490
   187 X     c    113.654169        -192.034527 -106.655280  386.682731
   188 X     c    125.417731          33.057027  544.732944  -30.939785
   189 X     c    118.422528        -476.086579  -79.978619    7.027912
   190 X     c    120.928355        -128.587038 -478.420356  -67.444486
   191 X     c    125.483731         -32.958408  544.197834  -30.333661
   192 X     c    117.535253           8.983462  -66.979181 -471.835479
   193 X     c    124.702990          -7.669632  542.076476   53.162800
   194 X     c    114.893310        -162.731124 -118.984137 -405.077710
   195 X     c    124.607185         -59.075861  534.787105   38.239737
   196 X     c    121.367619           2.985524  513.646962   55.683277
   197 X     c    120.816647         126.233075 -479.768939  -64.594317
   198 X     c    121.160486           0.017532 -514.402984   54.849967
   199 X     c    113.942559         426.552049   37.383303 -138.799659
   200 X     c    125.724526          48.668857  544.758580    9.073456
   201 X     c    138.189366          13.090945  -53.961693  538.866791
   202 X     c    117.308160        -469.670080  -64.833427    6.031380
   203 X     c     90.180683          17.382589  123.409502  -41.099478
   204 X     c    113.741436        -377.814062 -149.665355  193.913823
   205 X     c    142.957517        -133.047834   -6.387235  558.878759
   206 X     c    138.233580         -12.804999  -55.393281  538.952172
   207 X     c    114.492112         200.335760 -144.938163  374.131620
   208 X     c    114.933357         161.848094  109.905173 -408.575086
   209 X     c    115.010746        -358.259123 -142.510516  247.665707
   210 X     c    113.707307        -382.074550 -145.643921  187.677125
   211 X     c    113.891946        -426.610459   38.578658 -139.882324
   212 X     c    132.984675         459.496220  206.419663  171.759372
   213 X     c    115.454253         203.902813 -162.686162 -373.984538
   214 X     c    117.304008         374.297199  144.974163 -240.517333
   215 X     c    114.063565        -389.206395 -144.207087  180.074317
   216 X     c    118.436088        -476.330394   80.525285    1.829696
   217 X     c    115.644464        -396.380788  132.744281  199.052196
   218 X     c    117.347202         470.062715   63.988769    4.475066
   219 X     c    115.381910         208.714534  164.320389 -371.249939
   220 X     c    128.868174        -154.901993  118.528448  460.466798
   221 X     c    117.276091        -389.965589  136.843033 -221.776599
   222 X     c    128.640062         152.733766  116.677481  460.668619
   223 X     c    112.476914         436.848780  -27.537686  -62.023249
   224 X     c    115.264831        -203.239251 -162.513708 -374.977006
   225 X     c    116.576035        -463.945741   64.051899   42.552993
   226 X     c    112.668729        -437.108381  -27.972955  -62.374462
   227 X     c    126.029555          -0.447618 -544.949283  -48.975270
   228 X     c    127.209228        -475.143407  100.826004  -85.179114
   229 X     c    126.709082         471.980939  100.359879  -83.441864
   230 X     c    117.307395         393.511198  135.410613 -217.340993
   231 X     c    115.750806         -32.323637  -88.846350 -452.714706
   232 X     c    125.353106          32.912503 -544.480942  -33.547527
   233 X     c    125.541826         -31.994111  543.992476  -32.240011
   234 X     c    117.944628           0.185450   68.394332 -474.772656
   235 X     c    118.307072         475.865312  -80.503808    7.768072
   236 X     c    117.608084           9.302309  -66.931643 -471.839848
   237 X     c    124.717728          53.509613 -536.357900   43.982022
   238 X     c    117.611171          -9.171369  -66.271233 -472.009368
   239 X     c    118.462605         476.165054  -81.494620    2.477512
   240 X     c    118.062067           0.002043  -68.470988 -474.617542
   241 X     c    117.615501          -9.078693   66.147018 -471.992250
   242 X     c    125.794876         -49.005328 -545.487022    6.029722
   243 X     c    113.701648         377.959546 -149.951186  193.914405
   244 X     c    122.269108        -311.975737  323.788803 -213.509512
   245 X     c    111.847448          67.475657  -48.784322  430.748095
   246 X     c    114.441153        -193.057148  134.905627 -380.157483
   247 X     c    111.628592         -67.221672  -47.838747  431.234064
   248 X     c    120.505616        -127.375566  468.344140 -104.019080
   249 X     c    113.746512        -377.716204  149.780439  193.757650
   250 X     c    112.028242          -4.846905   60.191953  437.696172
   251 X     c    121.335621           2.649948  513.691660   55.545679
   252 X     c    116.707855         466.074372  -58.017650   40.722801
   253 X     c    121.232256          -0.102815  514.470194   54.870693
   254 X     c    121.193673          -2.674430  514.174122   55.833376
   255 X     c    115.788556          23.830669   88.782631 -453.356605
   256 X     c    120.674951         126.501913  469.350347 -102.983216
   257 X     c    113.656986        -382.154776  145.617601  187.471605
   258 X     c    124.829457          -3.614226 -542.812658   51.938790
-------------------------------------------------------------------------------

  Total time to end of lattice properties =       6.4110 s


  Peak dynamic memory used =      10.85 MB 


  Timing analysis for GULP :

--------------------------------------------------------------------------------
  Task / Subroutine                                          Time (Seconds)
--------------------------------------------------------------------------------
  Calculation of reciprocal space energy and derivatives          4.3963
  Calculation of real space energy and derivatives                1.3998
--------------------------------------------------------------------------------
  Total CPU time                                                  6.4110
--------------------------------------------------------------------------------


  Job Finished at 11:20.20 26th March      2015                               

